{
  "sk": {
    "title_index": "Domovská stránka",
    "menu_item_1": "Úvod",
    "menu_item_2": "Základné informácie",
    "menu_item_3": "Kremík",
    "menu_item_4": "Germánium",
    "menu_item_5": "Arzenid galitý",
    "menu_item_6": "Karbid kremičitý",
    "menu_item_7": "Gálium nitrid",
    "menu_item_8": "Organické polovodiče",
    "title_1": "Vitajte vo svete polovodičov!",
    "card_title_1": "Základné informácie",
    "card_button_1": "Zistiť viac",
    "card_title_2": "Kremík - kráľ polovodičov",
    "card_button_2": "Zistiť viac",
    "card_title_3": "Germánium",
    "card_button_3": "Zistiť viac",
    "card_title_4": "Arzenid galitý",
    "card_button_4": "Zistiť viac",
    "card_title_5": "Karbid kremičitý",
    "card_button_5": "Zistiť viac",
    "card_title_6": "Gálium nitrid",
    "card_button_6": "Zistiť viac",
    "card_title_7": "Organické polovodiče",
    "card_button_7": "Zistiť viac",

    "title_uvod": "Čo sú to polovodiče?",
    "title_2": "Čo sú to polovodiče?",
    "first_list_1": "Objav polovodičov je považovaný za významný objav s veľkým využitím v súčasnosti.",
    "first_list_2": "Polovodiče majú mnohé vlastnosti, ktoré ich robia dôležitými v rôznych oblastiach, vrátane elektroniky, elektrotechniky, zobrazovacej techniky, solárnych článkov a atómových batérií.",
    "first_list_3": "Pre pochopenie využitia polovodičov je dôležné mať základné poznatky o ich elektrónovej štruktúre.",
    "carousel_item_1": "Solárne články",
    "carousel_item_2": "Diódy",
    "carousel_item_3": "Lasery",
    "second_list_1": "Polovodiče sú materiály, ktoré sa nachádzajú medzi vodičmi a nevodičmi z hľadiska elektrickej vodivosti.",
    "second_list_2": "Ich elektrická vodivosť sa mení v závislosti na teplote, osvetlení, usporiadaní kryštalickej mriežky a prítomnosti prímesí.",
    "second_list_3": "Polovodiče majú valenčné elektróny, ktoré môžu prejsť do vodivostného pásma a pohybovať sa voľne, ak dostanú energiu, ktorá presahuje energetickú medzeru medzi týmito pásmami.",
    "second_list_4": "Šírka tejto medzery určuje elektrickú vodivosť látky, pričom u vodičov je táto medzera nulová, zatiaľ čo u nevodičov je veľká.",
    "second_list_5": "Polovodiče majú schopnosť viesť veľké prúdy a majú nízky odpor pri vyšších teplotách.",
    "title_3": "História polovodičov",
    "third_list_1": "Niektoré z významných vlastností polovodičov boli známe už pomerne dávno.",
    "third_list_2": "Fotoelektrické vlastnosti selénu sa vyšetrovali už v 60. rokoch 19. storočia.",
    "third_list_3": "Koncom 19. a začiatkom 20. storočia sa vyšetrujú vlastnosti polárnych polovodičov a usmerňovacie účinky niektorých oxidov.",
    "third_list_4": "Z Cu2O sa r. 1926 vyhotovil prvý technický upotrebiteľný usmerňovač.",
    "third_list_5": "Z toho istého polovodiča sa r. 1932 vyrobil aj fotočlánok.",
    "third_list_6": "Napriek týmto sporadickým úspechom sa vlastné dejiny polovodičov začínajú fakticky až v polovici 20. storočia.",
    "third_list_7": "Prvým predpokladom praktického upotrebenia polovodičových materiálov, najmä chemických jedincov, je takmer dokonalá čistota.",
    "third_list_8": "Obrovský rozvoj v technickej aplikácii polovodičov nastal od r. 1948.",
    "third_list_9": "Prvý tranzistor, aktívna polovodičová súčiastka prevažne s tromi elektródami, bola vyrobený v tomto období. Tranzistor slúži na spracovanie signálov, napríklad na generovanie a zosilnenie elektrických signálov, premenu neelektrických signálov na elektrické a pod.",
    "title_4": "Aké látky patria k polovodičom?",
    "fourth_list_1": "Odpoveď na túto otázku sa komplikovala tým viac, čím viac sa polovodiče preskúmali.",
    "fourth_list_2": "Na začiatku polovodičovej éry stačilo povedať, že polovodič je materiál s elektrickou vodivosťou medzi kovom a izolantom.",
    "fourth_list_3": "Neskôr, keď sa zistila vzájomná súvislosť vlastností polovodiča s periodickosťou (t.j. kryštalickosťou) látky, z ktorej vyplynul tzv. model pásmového spektra elektrónov, bolo možné definovať polovodič presnejšie.",
    "fourth_list_4": "Typické polovodiče tvorené jedným prvkom (elementárne polovodiče) sú zo IV. skupiny periodickej tabuľky prvkov: Kremík, Germánium, Uhlík a Selén.",
    "fourth_list_5": "Keď sa spoja atómy, kde majú elektróny rôzne potenciálové hladiny, v zlúčenine alebo zliatine (tuhej zmesi), môžu vzniknúť efekty, ktoré pri jednoduchých polovodičoch nie sú možné. Podstatné však je, aby bola zachovaná dokonalá kryštalická mriežka.",
    "fourth_list_6": "Podľa počtu prvkov v kompozitnom polovodiči hovoríme o binárnych (2), ternárnych (3) a kvaternárnych (4) kompozitoch. V nasledujúcej tabuľke uvádzame iba niektoré z najvýznamnejších.",
    "table_column_1": "Skupina",
    "table_column_2": "Počet atómov",
    "table_column_3": "Polovodič",
    "table_column_4": "Šírka zak. pásma [eV]",
    "table_row_item_1": "C (diamant)",
    "table_row_item_2": "Ge (germánium)",
    "table_row_item_3": "Se (selén)",
    "table_row_item_4": "Te (telúr)",

    "title_kremik": "Kremík",
    "title_5": "Kremík (Si)",
    "sub_menu_1": "Základné informácie",
    "sub_menu_2": "3D Štruktúra",
    "sub_menu_3": "Zaujímavosti",
    "title_6": "Základné informácie o kremíku",
    "table_row_item_5": "Atómové číslo",
    "table_row_item_6": "Elektronický obal",
    "table_row_item_7": "Atómová hmotnosť",
    "table_row_item_8": "Hustota",
    "table_row_item_9": "Bod topenia",
    "table_row_item_10": "Bod varu",
    "table_row_item_11": "Tepelná vodivosť",
    "table_row_item_12": "Šírka zakázaného pásma",
    "table_row_item_13": "Izotópy",
    "table_row_item_14": "Objavil",
    "first_paragraph": "Kremík je prvok na 14. mieste v Mendelejevovej periodickej tabuľke. Kryštalizuje sa v kubickej sústave s plošne centrovanou kryštálovou mriežkou. Tvorí 26 – 28% zemskej kôry, v ktorej sa nachádza hlavne vo forme oxida kremičitého (SiO<sub>2</sub>), rozličných pieskov a pod. V morskej vode je jeho koncentrácia pomerne nízka, vo vesmíre pripadá na jeden atóm kremíka približne 30 000 atómov vodíka.",
    "second_paragraph":"Má širšie zakázané pásmo (1.12 eV) ako germánium (0.67 eV), čo spôsobuje, že vodivosť kremíka je priemerne 100-krát menšia ako vodivosť germánia. Kremík má vyšší bod topenia a je lacnejší. To je hlavne v usmerňovacej a tranzistorovej technike veľkou výhodou, pretože umožňuje prácu pri podstatne vyšších teplotách. Jeho veľkou výhodou je schopnosť tvorby oxidu SiO<sub>2</sub>, ktorý umožňuje aplikovať fotolitografické postupy pri výrobe polovodičových súčiastok a slúži tiež ako výborná difúzna bariéra.",
    "title_7": "Diamantová štruktúra kremíka",
    "title_8": "Elementárna bunka",
    "rotateX": "Otáčanie podľa osi X",
    "rotateY": "Otáčanie podľa osi Y",
    "rotateZ": "Otáčanie podľa osi Z",
    "title_9": "Legenda",
    "legenda_items_1": "– Atóm kremíka",
    "legenda_items_2": "– Väzba medzi atómami",
    "legenda_items_3": "– Väzba na znázornenie elementárnej bunky",
    "title_10": "Návod na použitie",
    "manual_item_1":"Držaním a následným hýbaním kurzoru sa štruktúra otáča",
    "manual_item_2": "Kolieskom na myši a taktiež pohybom dvomi prstami na touchpade sa dá zoomovať/unzoomovat",
    "features_paragraph": "Kryštalografia definuje rôzne optické a elektrické vlastnosti materiálov a ich možné využitie pre elektronické prvky. Štruktúra kryštalického kremíka je trojrozmerné periodické zoskupenie atómov. Je dôležitá, lebo má:",
    "feature_item_1": "nižšiu absorpciu svetla,",
    "feature_item_2": "vyššiu vodivosť",
    "feature_item_3": "a menej defektov",
    "features_paragraph_end": "Diamantovú mriežku tvorí množstvo elementárnych buniek, čo je najmenšia časť priestorovej mriežky, obsahuje najmenší možný počet uzlových atómov. Pod pojmom elementárny stavebný blok myslíme objekt, ktorý je jednoduchý a bez štruktúry - ktorý sa už neskladá z ničoho menšieho, len zo seba samého.",
    "interesting_facts_1": "Tvorí 26 – 28% zemskej kôry.",
    "interesting_facts_2": "V tele dospelého človeka sa nachádza približne 1 g kremíka, a to predovšetkým v kostiach, chrupavkách a zubnej sklovine, je nevyhnutný pre ich zdravý rast a vývoj.",
    "interesting_facts_3": "Zabezpečuje elasticitu ciev, zúčastňuje sa na príjme vápnika z potravy a na raste vlasov a nechtov.",
    "interesting_facts_4": "Používa sa aj v počítačovom a mikroelektronickom priemysle.",
    "interesting_facts_5": "Stardust (misia NASA) na zachytenie častíc bez ich poškodenia používa mimoriadnu látku zvanú aerogél. Je to pevná látka na báze kremíka.",
    "interesting_facts_6": "Je hlavnou zložkou skla, cementu, keramiky a tehál.",
    "interesting_facts_7": "Je známe, že kremík tvorí zlúčeniny so 64 z 96 stabilných prvkov a prípadne tvorí silicidy s ďalšími 18 prvkami.",
    "interesting_facts_8": "Čína, Rusko, Nórsko a Brazília sú najväčšími producentmi kremíka."
  },
  "en": {
    "title_index": "Home page",
    "menu_item_1": "Home",
    "menu_item_2": "Basic information",
    "menu_item_3": "Silicon",
    "menu_item_4": "Germanium",
    "menu_item_5": "Gallium arsenide",
    "menu_item_6": "Silicon carbide",
    "menu_item_7": "Gallium nitride",
    "menu_item_8": "Organic semiconductors",
    "title_1": "Welcome to the world of semiconductors!",
    "card_title_1": "Basic information",
    "card_button_1": "Find out more",
    "card_title_2": "Silicon - the king of semiconductors",
    "card_button_2": "Find out more",
    "card_title_3": "Germanium",
    "card_button_3": "Find out more",
    "card_title_4": "Gallium arsenide",
    "card_button_4": "Find out more",
    "card_title_5": "Silicon carbide",
    "card_button_5": "Find out more",
    "card_title_6": "Gallium nitride",
    "card_button_6": "Find out more",
    "card_title_7": "Organic semiconductors",
    "card_button_7": "Find out more",

    "title_uvod": "What are semiconductors?",
    "title_2": "What are semiconductors?",
    "first_list_1": "The discovery of semiconductors is considered an important discovery with great use today.",
    "first_list_2": "Semiconductors have many properties that make them important in a variety of fields, including electronics, electrical engineering, imaging, solar cells, and atomic batteries.",
    "first_list_3": "To understand the use of semiconductors, it is important to have basic knowledge about their electronic structure.",
    "carousel_item_1": "Solar cells",
    "carousel_item_2": "Diodes",
    "carousel_item_3": "Lasers",
    "second_list_1": "Semiconductors are materials that lie between conductors and non-conductors in terms of electrical conductivity.",
    "second_list_2": "Their electrical conductivity changes depending on temperature, lighting, arrangement of the crystal lattice and the presence of impurities.",
    "second_list_3": "Semiconductors have valence electrons that can move into the conduction band and move freely if given an energy that exceeds the energy gap between these bands.",
    "second_list_4": "The width of this gap determines the electrical conductivity of the substance, in conductors, this gap is zero, while in non-conductors it is large.",
    "second_list_5": "Semiconductors have the ability to conduct large currents and have low resistance at higher temperatures.",
    "title_3": "History of semiconductors",
    "third_list_1": "Some of the important properties of semiconductors have been known for a long time.",
    "third_list_2": "The photoelectric properties of selenium were already investigated in the 1860s.",
    "third_list_3": "At the end of the 19th and the beginning of the 20th century, the properties of polar semiconductors and the rectification effects of some oxides were investigated.",
    "third_list_4": "From Cu2O, in 1926 was made the first technically usable rectifier.",
    "third_list_5": "From the same semiconductor, in 1932, was also produced a photocell.",
    "third_list_6": "Despite these sporadic successes, the actual history of semiconductors actually began only in the middle of the 20th century.",
    "third_list_7": "The first prerequisite for the practical use of semiconductor materials, especially chemical ones, is almost perfect purity.",
    "third_list_8": "A huge development in the technical application of semiconductors has occurred since 1948.",
    "third_list_9": "The first transistor, a predominantly three-electrode active semiconductor device, was produced during this period. The transistor is used for signal processing, for example, for generating and amplifying electrical signals, converting non-electrical signals into electrical ones, etc.",
    "title_4": "What substances belong to semiconductors?",
    "fourth_list_1": "The answer to this question became more complicated the more semiconductors were researched.",
    "fourth_list_2": "At the beginning of the semiconductor era, it was enough to say that a semiconductor is a material with electrical conductivity between a metal and an insulator.",
    "fourth_list_3": "Later, when the interrelationship of the properties of the semiconductor with the periodicity (i.e. crystallinity) of the substance was discovered, which resulted in the so-called model of the band spectrum of electrons, it was possible to define a semiconductor more precisely.",
    "fourth_list_4": "Typical semiconductors formed by one element (elementary semiconductors) are from IV. groups of the periodic table of elements: Silicon, Germanium, Carbon and Selenium.",
    "fourth_list_5": "When atoms where electrons have different potential levels are brought together in a compound or alloy (solid mixture), effects can occur that are not possible with simple semiconductors. However, it is essential that the perfect crystal lattice is preserved.",
    "fourth_list_6": "According to the number of elements in a composite semiconductor, we talk about binary (2), ternary (3) and quaternary (4) composites. In the following table, we list only some of the most important ones.",
    "table_column_1": "Group",
    "table_column_2": "Number of atoms",
    "table_column_3": "Semiconductor",
    "table_column_4": "Width bands [eV]",
    "table_row_item_1": "C (diamond)",
    "table_row_item_2": "Ge (germanium)",
    "table_row_item_3": "Se (selenium)",
    "table_row_item_4": "Te (tellurium)",

    "title_kremik": "Silicon",
    "title_5": "Silicon (Si)",
    "sub_menu_1": "Basic information",
    "sub_menu_2": "3D Structure",
    "sub_menu_3": "Interesting facts",
    "title_6": "Basic information about silicon",
    "table_row_item_5": "Atomic number",
    "table_row_item_6": "Electronic packaging",
    "table_row_item_7": "Atomic weight",
    "table_row_item_8": "Density",
    "table_row_item_9": "Melting point",
    "table_row_item_10": "Boiling point",
    "table_row_item_11": "Thermal conductivity",
    "table_row_item_12": "The width of the forbidden band",
    "table_row_item_13": "Isotopes",
    "table_row_item_14": "Discovered by",
    "first_paragraph": "Silicon is the 14th element in Mendeleev's periodic table. It crystallizes in a cubic system with a face-centered crystal lattice. It makes up 26-28% of the earth's crust, and it is found mainly in the form of silicon oxide, various sands, etc. In seawater, its concentration is relatively low, in space, there are approximately 30,000 hydrogen atoms for one silicon atom.",
    "second_paragraph": "It has a wider band gap (1.12 eV) than germanium (0.67 eV), which makes the conductivity of silicon on average 100 times smaller than that of germanium. Silicon has a higher melting point and is cheaper. This is a great advantage, especially in rectifier and transistor technology, because it enables work at significantly higher temperatures. Its great advantage is the ability to form silicon oxide, which enables the application of photolithographic processes in the production of semiconductor components and also serves as an excellent diffusion barrier.",
    "title_7": "Diamond structure of silicon",
    "title_8": "Elementary cell",
    "rotateX": "X-axis rotation",
    "rotateY": "Y-axis rotation",
    "rotateZ": "Z-axis rotation",
    "title_9": "The legend",
    "legenda_items_1": "– Silicon atom",
    "legenda_items_2": "– A bond between atoms",
    "legenda_items_3": "– Binding to represent the unit cell",
    "title_10": "Manual",
    "manual_item_1":"By holding and then moving the cursor, the structure rotates",
    "manual_item_2": "You can zoom/unzoom with the wheel on the mouse and also by moving two fingers on the touchpad",
    "features_paragraph": "Crystallography defines various optical and electrical properties of materials and their possible use for electronic components. The structure of crystalline silicon is a three-dimensional periodic arrangement of atoms. It is important because it has:",
    "feature_item_1": "lower light absorption,",
    "feature_item_2": "higher conductivity",
    "feature_item_3": "and fewer defects",
    "features_paragraph_end":"The diamond lattice consists of several elementary cells, which is the smallest part of the spatial lattice, and contains the smallest possible number of nodal atoms. By the term elementary building block, we mean an object that is simple and without structure - that no longer consists of anything smaller, only of itself.",
    "interesting_facts_1": "It makes up 26-28% of the earth's crust.",
    "interesting_facts_2": "There is approximately 1 g of silicon in the body of an adult, primarily in bones, cartilage, and tooth enamel, it is essential for healthy growth and development.",
    "interesting_facts_3": "It ensures the elasticity of blood vessels, participates in the intake of calcium from food, and in the growth of hair and nails.",
    "interesting_facts_4": "It is also used in the computer and microelectronics industry.",
    "interesting_facts_5": "Stardust (a NASA mission) uses a special substance called aerogel to capture the particles without damaging them. It is a silicon-based solid.",
    "interesting_facts_6": "It is the main component of glass, cement, ceramics, and bricks.",
    "interesting_facts_7": "Silicon is known to form compounds with 64 of the 96 stable elements and possibly form silicides with another 18 elements.",
    "interesting_facts_8": "China, Russia, Norway and Brazil are the largest producers of silicon."
  }
}